# vtk DataFile Version 5.1
vtk output
ASCII
DATASET POLYDATA
POINTS 5519 float
-27.6651 18.222 19.3364 -27.0708 18.3405 19.3877 -27.6358 18.5297 19.8471 
-27.0708 18.5727 19.7758 -27.0708 18.1217 19.0207 -27.4963 18.0881 19.077 
-27.0708 17.9562 18.7383 -27.6651 17.9473 18.8623 -27.6358 17.6374 18.3236 
-27.0236 17.6416 18.2213 -26.4972 18.4827 19.4245 -26.6797 18.6098 19.7148 
-27.8729 18.0668 19.1138 -26.5059 18.1818 18.9248 -28.2007 18.0492 19.1471 
-28.2007 18.2088 19.4296 -28.7657 18.0207 19.2038 -28.7657 18.175 19.4863 
-28.7248 18.4836 20.0068 -28.2007 18.4913 19.9133 -28.2007 17.8737 18.8228 
-28.7657 17.8239 18.8228 -28.2007 17.6135 18.3513 -28.7657 17.5922 18.3777 
-29.3307 18.0018 19.2419 -29.3307 18.1541 19.5243 -29.8956 17.9967 19.2535 
-29.8956 18.1465 19.536 -29.3307 18.4079 19.9527 -29.8956 18.3931 19.9527 
-29.3307 17.7902 18.8228 -29.8956 17.7833 18.8228 -29.3307 17.5774 18.3979 
-29.8956 17.5757 18.397 -28.2007 17.4488 18.0688 -28.7657 17.4384 18.0952 
-29.3307 17.4326 18.1155 -29.8956 17.4375 18.1145 -28.2007 16.9757 17.3635 
-28.7657 16.9796 17.3534 -28.2007 16.7537 17.081 -28.7657 16.7758 17.071 
-28.7657 17.1939 17.6929 -28.2007 17.2004 17.6929 -29.3307 16.9893 17.3321 
-29.8956 17.0076 17.2946 -29.3307 16.8023 17.0497 -29.8956 16.8376 17.0122 
-29.8956 17.221 17.6929 -29.3307 17.1977 17.6929 -29.925 16.5251 16.5285 
-29.3307 16.5198 16.6482 -28.7657 16.4933 16.6973 -30.4606 18.1439 19.5382 
-31.0255 18.1449 19.5355 -30.4606 17.9979 19.2558 -31.0255 18.0013 19.253 
-31.0255 18.3863 19.9527 -30.4606 18.3853 19.9527 -31.0255 17.5898 18.3493 
-30.4606 17.5815 18.3783 -31.0255 17.8021 18.8228 -30.4606 17.7904 18.8228 
-32.1554 18.0304 19.1915 -31.5905 18.0118 19.2302 -32.1554 18.1762 19.474 
-31.5905 18.156 19.5127 -32.1823 18.4868 20.0053 -31.5905 18.4099 19.9527 
-32.1296 17.6103 18.2087 -31.5905 17.6044 18.3044 -32.1554 17.8675 18.8228 
-31.5905 17.8271 18.8228 -30.4606 17.4505 18.0959 -31.0255 17.4668 18.0669 
-31.9241 17.5017 17.9877 -31.5905 17.4874 18.0219 -30.4606 17.0316 17.2395 
-31.0255 17.0579 17.1732 -30.4606 16.8772 16.957 -31.0255 16.9163 16.8907 
-31.0255 17.3006 17.6929 -30.4606 17.258 17.6929 -31.0255 16.7254 16.5629 
-31.0255 16.4683 16.1351 -30.4606 16.6352 16.5629 -30.4606 16.4171 16.2196 
-31.551 17.0718 17.0761 -31.5905 17.3498 17.6929 -32.1554 17.1757 17.1279 
-32.1296 17.4192 17.7282 -32.1554 16.9987 16.7197 -32.1554 16.8631 16.4372 
-31.713 16.9655 16.7948 -31.551 16.8298 16.5891 -31.6256 16.4988 15.9788 
-32.1554 16.6282 15.998 -31.3364 16.9375 16.8532 -30.133 16.3861 16.2669 
-32.3007 17.52 17.94 -29.925 16.1771 16.0463 -29.7563 16.3489 16.3172 
-29.3307 16.3098 16.3657 -30.4606 16.2174 15.9371 -31.0255 16.2831 15.8527 
-31.4608 16.3371 15.7776 -31.6256 16.1811 15.4805 -31.8374 16.3859 15.7005 
-32.1554 16.2451 15.3538 -32.1554 16.4242 15.6362 -27.6358 17.4635 18.0411 
-27.6358 17.2186 17.6929 -31.0517 15.9727 15.4062 -30.4606 15.9349 15.5556 
-29.8956 18.6006 20.2901 -29.3307 18.6078 20.2791 -28.8858 18.6204 20.26 
-30.4606 18.5954 20.2988 -31.0255 18.5955 20.2987 -31.5905 18.6079 20.2787 
-32.0119 18.6241 20.2538 -23.1048 25.1197 23.5144 -23.086 24.537 23.2338 
-22.5277 25.1151 23.2299 -22.7003 24.7043 23.1319 -22.8777 24.3277 23.0393 
-22.5277 24.537 22.9575 -23.2543 24.1648 23.1226 -23.086 23.9873 22.9589 
-22.5619 26.2989 23.7147 -23.1161 26.2634 23.9599 -22.7574 25.8791 23.6627 
-23.1048 25.6938 23.7522 -23.1072 27.4209 24.2827 -23.2896 26.9359 24.2389 
-22.9129 27.2509 24.1545 -23.1072 26.7799 24.1137 -22.5512 26.8284 23.8753 
-22.5926 27.4209 24.0544 -22.8086 27.6276 24.2009 -21.9534 27.3784 23.754 
-22.1391 26.8284 23.6851 -21.979 25.6986 23.199 -22.0284 26.2989 23.458 
-22.5619 25.6938 23.4934 -22.3808 26.1343 23.5711 -22.9088 25.5024 23.5903 
-21.7432 27.1801 23.6061 -21.8567 26.8284 23.554 -21.6476 27.5567 23.6538 
-21.4441 27.3784 23.5029 -22.2448 26.5109 23.6361 -23.2855 25.2988 23.6755 
-22.1625 25.2911 23.1174 -21.0414 29.6531 23.675 -21.0927 29.1956 23.6483 
-20.7589 29.6531 23.5276 -20.8852 29.0397 23.5192 -20.6917 30.783 23.56 
-20.9742 30.783 23.7144 -20.7147 30.2181 23.5489 -20.9972 30.2181 23.6997 
-21.4711 28.5232 23.7466 -21.9862 28.5232 24.0055 -21.5674 27.9583 23.6966 
-21.9862 27.9583 23.9022 -22.1666 29.6531 24.241 -22.2191 29.1824 24.2146 
-21.8841 29.6531 24.0997 -22.0129 29.0317 24.0924 -21.3671 29.0397 23.7675 
-21.4213 29.6531 23.8673 -22.321 28.5232 24.1663 -22.6035 28.5232 24.293 
-22.4434 27.9583 24.1129 -22.7259 27.9583 24.237 -23.1161 28.5232 24.5185 
-23.1161 27.9583 24.4085 -22.4947 29.0317 24.3235 -22.5512 29.6531 24.4247 
-23.1642 29.1158 24.6347 -23.0583 29.6531 24.656 -22.2687 28.8057 24.1898 
-21.2849 27.9583 23.548 -21.1886 28.5232 23.5988 -21.1426 28.819 23.6229 
-22.1183 30.2181 24.2648 -21.8358 30.2181 24.1245 -22.0859 30.783 24.2799 
-21.8034 30.783 24.1409 -21.4213 30.2181 23.9168 -21.4213 30.783 23.9479 
-22.0764 31.913 24.2847 -22.0718 31.348 24.2864 -21.7939 31.913 24.1448 
-21.7893 31.348 24.1476 -21.4213 31.913 23.953 -21.4213 31.348 23.9598 
-22.9969 30.2181 24.6817 -22.5512 30.2181 24.4742 -22.9579 30.783 24.6981 
-22.5512 30.783 24.5057 -22.943 31.913 24.7033 -22.9404 31.348 24.7052 
-22.5512 31.913 24.5158 -22.5512 31.348 24.5192 -20.9669 31.348 23.7196 
-20.9728 31.913 23.7156 -22.1347 33.0429 24.2572 -22.0981 32.4779 24.2749 
-21.8522 33.0429 24.1145 -21.8157 32.4779 24.1336 -21.4213 33.0429 23.8907 
-21.4213 32.4779 23.9295 -22.9976 33.0429 24.6765 -22.9628 32.4779 24.6934 
-22.5512 33.0429 24.4614 -22.5512 32.4779 24.496 -22.4997 34.2102 24.322 
-23.1555 34.1943 24.6454 -22.5512 33.6078 24.413 -23.046 33.6078 24.6529 
-22.1848 33.6078 24.2323 -22.2316 34.0469 24.2087 -22.2771 34.4235 24.1856 
-22.0205 34.2102 24.0797 -21.9023 33.6078 24.0882 -22.6027 34.7377 24.306 
-22.6857 35.3027 24.2652 -23.1161 34.7377 24.5594 -23.1161 35.3027 24.4796 
-22.7768 35.8676 24.219 -23.1161 35.8676 24.3896 -22.3202 34.7377 24.1635 
-23.3845 29.3226 24.7609 -23.3408 29.6531 24.78 -23.2404 30.783 24.8263 
-23.2793 30.2181 24.8077 -23.2255 31.913 24.8354 -23.2229 31.348 24.8355 
-23.2801 33.0429 24.8113 -23.2453 32.4779 24.8271 -23.3285 33.6078 24.7883 
-23.3701 34.0203 24.7685 -25.4277 27.4434 25.1851 -25.376 26.8284 24.9948 
-24.811 27.3933 24.9521 -24.8356 26.8696 24.8155 -24.5093 27.0855 24.7618 
-24.4026 27.3933 24.8023 -25.0404 26.4846 24.7738 -25.3966 26.2831 24.829 
-27.6358 24.718 24.8193 -27.2748 24.8072 24.7751 -27.6358 25.1335 25.0108 
-27.0802 25.1153 24.8632 -26.5506 26.31 25.1875 -26.5059 25.6984 24.9497 
-25.9409 26.2634 24.9959 -25.9935 25.7217 24.8134 -25.9751 26.8616 25.2007 
-25.8096 27.2884 25.2723 -26.1863 27.072 25.3311 -25.9751 27.4434 25.3664 
-26.5059 27.3933 25.5153 -26.5506 26.8616 25.3695 -26.3921 26.6954 25.2721 
-27.6021 26.2223 25.4415 -27.7679 25.887 25.3563 -27.3913 26.0065 25.3102 
-27.6021 25.6986 25.2412 -27.0708 26.1291 25.2672 -27.0708 25.6984 25.1049 
-27.0708 26.4115 25.3678 -27.0708 26.8284 25.5077 -27.0708 27.3933 25.6796 
-27.6358 26.8284 25.6612 -27.6109 27.3752 25.8234 -26.7687 26.5295 25.3253 
-25.5987 25.9255 24.7746 -25.6505 27.665 25.3224 -26.2169 25.4114 24.7566 
-26.5059 25.3192 24.7967 -24.2871 22.9193 22.8696 -24.246 22.4377 22.5851 
-23.6974 22.8651 22.6205 -23.8965 22.5477 22.5194 -25.3635 22.8423 23.2157 
-25.5434 22.5293 23.0957 -25.1668 22.6331 23.0363 -25.3635 22.3281 22.9209 
-24.7806 22.2685 22.6836 -24.811 22.7503 22.9728 -24.811 23.0328 23.1283 
-24.5027 23.1381 23.0697 -25.376 21.8324 22.6214 -24.9487 21.9426 22.5489 
-25.3354 20.0322 21.1015 -25.1209 20.3431 21.3532 -25.4975 20.2675 21.4326 
-25.3315 20.5946 21.668 -24.811 20.6929 21.5533 -24.811 20.4104 21.2881 
-24.7806 21.7501 22.3584 -25.376 21.5499 22.4363 -24.811 21.2987 22.0543 
-25.3626 21.1424 22.134 -25.1654 20.9297 21.9033 -24.811 21.0163 21.8357 
-24.2286 21.7089 22.1232 -24.4052 21.3995 21.9765 -24.2286 21.1982 21.7487 
-23.6974 22.3391 22.3237 -24.246 22.1553 22.4191 -23.6811 21.877 22.0311 
-24.5721 22.0534 22.4784 -26.5324 21.7904 22.8859 -26.5059 21.3383 22.5822 
-25.9056 21.6953 22.6816 -26.0703 21.4071 22.5328 -26.5324 22.282 23.191 
-25.9409 22.4407 23.1485 -26.5059 22.8079 23.4985 -25.9916 22.9276 23.4423 
-25.9409 22.1583 22.9824 -26.3618 22.0758 23.0302 -27.628 21.1366 22.6736 
-27.0708 21.2556 22.6427 -27.6358 21.5765 22.9845 -27.0708 21.6706 22.9252 
-27.6358 21.859 23.1692 -27.0708 21.9531 23.1068 -27.0708 22.3087 23.328 
-27.0708 22.6934 23.5636 -27.6306 22.3436 23.4748 -27.4389 22.6225 23.6057 
-26.7385 22.0098 23.0702 -26.2137 23.1518 23.6273 -26.5059 23.0904 23.6635 
-27.6306 22.836 23.7795 -27.8155 22.5552 23.6473 -27.0708 22.9759 23.7341 
-25.9409 20.4925 21.7908 -26.5059 20.4103 21.8628 -25.9409 20.1912 21.5084 
-26.5059 20.1134 21.5804 -25.9409 20.775 22.0307 -26.5059 20.6928 22.098 
-26.5059 19.0933 20.3906 -26.0651 19.1514 20.3101 -26.5059 19.3019 20.6731 
-25.9024 19.3506 20.5061 -25.9409 19.6626 20.927 -26.5059 19.5844 21.0145 
-27.0828 20.5744 22.1203 -27.2792 20.3144 21.9454 -26.9025 20.3598 21.9052 
-27.0821 20.0508 21.6451 -27.628 20.6537 22.3009 -27.6358 20.2742 21.9833 
-27.6358 19.9918 21.7088 -27.6128 19.0184 20.5662 -27.4092 19.2118 20.7869 
-27.7858 19.1783 20.8306 -27.6128 19.3896 21.0444 -27.0708 19.0366 20.4657 
-27.0708 19.2429 20.7482 -27.0724 19.5627 21.1259 -27.6358 19.7114 21.4263 
-27.2618 19.7482 21.3849 -25.9409 19.9087 21.2095 -26.5059 19.8309 21.297 
-26.8851 19.7872 21.3431 -25.542 20.846 21.9717 -25.3674 19.5682 20.5519 
-25.55 19.7273 20.8498 -25.9056 21.2028 22.3441 -25.6937 21.4748 22.4859 
-23.5199 22.6711 22.4513 -26.5059 21.0558 22.3804 -27.4344 20.9202 22.4771 
-27.0708 20.9731 22.4389 -24.246 20.8164 21.44 -27.8111 20.8686 22.5166 
-24.2955 25.1835 24.0177 -24.2716 24.5748 23.7289 -23.6755 25.1197 23.7541 
-23.8601 24.7673 23.665 -23.6785 23.9873 23.2017 -23.8651 23.648 23.0978 
-23.4884 23.7882 23.0253 -23.6785 23.4512 22.924 -24.2716 24.0366 23.4564 
-24.2871 23.4512 23.1548 -24.1261 23.2713 22.9992 -25.3316 25.0862 24.3509 
[...]
CELL_DATA 10700
SCALARS scalars float
LOOKUP_TABLE default
4.74 4.74 4.74 4.74 4.74 4.74 4.74 4.74 4.74 
4.74 4.74 4.74 4.74 4.74 4.74 4.74 4.74 4.74 
4.74 4.74 4.74 4.74 4.74 4.74 4.74 4.74 4.74 
4.74 4.74 4.74 4.74 4.74 4.74 4.74 4.74 4.74 
4.74 4.74 4.74 4.74 4.74 4.74 4.74 4.74 4.74 
4.74 4.74 4.74 4.74 4.74 4.74 4.74 4.74 4.74 
4.74 4.74 4.74 4.74 4.74 4.74 4.74 4.74 4.74 
4.74 4.74 4.74 4.74 4.74 4.74 4.74 4.74 4.74 
4.74 4.74 4.74 4.74 4.74 4.74 4.74 4.74 4.74 
4.74 4.74 4.74 4.74 4.74 4.74 4.74 4.74 4.74 
4.74 4.74 4.74 4.74 4.74 4.74 4.74 4.74 4.74 
4.74 4.74 4.74 4.74 4.74 4.74 4.74 4.74 4.74 
4.74 4.74 4.74 4.74 4.74 4.74 4.74 4.74 4.74 
4.74 4.74 4.74 4.74 4.74 4.74 4.74 4.74 4.74 
4.74 4.74 4.74 4.74 4.74 4.74 4.74 4.74 4.74 
4.74 4.74 4.74 4.74 4.74 4.74 4.74 4.74 4.74 
4.74 4.74 4.74 4.74 4.74 4.74 4.74 4.74 4.74 
4.74 4.74 4.74 4.74 4.74 4.74 4.74 4.74 4.74 
4.74 4.74 4.74 4.74 4.74 4.74 4.74 4.74 4.74 
4.74 4.74 4.74 4.74 4.74 4.74 4.74 4.74 4.74 
4.74 4.74 4.74 4.74 4.74 4.74 4.74 4.74 4.74 
4.74 4.74 4.74 4.74 4.74 4.74 4.74 4.74 4.74 
4.74 4.74 4.74 4.74 4.74 4.74 4.74 4.74 4.74 
4.74 4.74 4.74 4.74 4.74 4.74 4.74 4.74 4.74 
4.74 4.74 4.74 4.74 4.74 4.74 4.74 4.74 4.74 
4.74 4.74 4.74 4.74 4.74 4.74 4.74 4.74 4.74 
4.74 4.74 4.74 4.74 4.74 4.74 4.74 4.74 4.74 
4.74 4.74 4.74 4.74 4.74 4.74 4.74 4.74 4.74 
4.74 4.74 4.74 4.74 4.74 4.74 4.74 4.74 4.74 
4.74 4.74 4.74 4.74 4.74 4.74 4.74 4.74 4.74 
4.74 4.74 4.74 4.74 4.74 4.74 4.74 4.74 4.74 
4.74 4.74 4.74 4.74 4.74 4.74 4.74 4.74 4.74 
4.74 4.74 4.74 4.74 4.74 4.74 4.74 4.74 4.74 
4.74 4.74 4.74 4.74 4.74 4.74 4.74 4.74 4.74 
4.74 4.74 4.74 4.74 4.74 4.74 4.74 4.74 4.74 
4.74 4.74 4.74 4.74 4.74 4.74 4.74 4.74 4.74 
4.74 4.74 4.74 4.74 4.74 4.74 4.74 4.74 4.74 
4.74 4.74 4.74 4.74 4.74 4.74 4.74 4.74 4.74 
4.74 4.74 4.74 4.74 4.74 4.74 4.74 4.74 4.74 
4.74 4.74 4.74 4.74 4.74 4.74 4.74 4.74 4.74 
4.74 4.74 4.74 4.74 4.74 4.74 4.74 4.74 4.74 
4.74 4.74 4.74 4.74 4.74 4.74 4.74 4.74 4.74 
4.74 4.74 4.74 4.74 4.74 4.74 4.74 4.74 4.74 
4.74 4.74 4.74 4.74 4.74 4.74 4.74 4.74 4.74 
4.74 4.74 4.74 4.74 4.74 4.74 4.74 4.74 4.74 
4.74 4.74 4.74 4.74 4.74 4.74 4.74 4.74 4.74 
4.74 4.74 4.74 4.74 4.74 4.74 4.74 4.74 4.74 
4.74 4.74 4.74 4.74 4.74 4.74 4.74 4.74 4.74 
4.74 4.74 4.74 4.74 4.74 4.74 4.74 4.74 4.74 
4.74 4.74 4.74 4.74 4.74 4.74 4.74 4.74 4.74 
4.74 4.74 4.74 4.74 4.74 4.74 4.74 4.74 4.74 
4.74 4.74 4.74 4.74 4.74 4.74 4.74 4.74 4.74 
4.74 4.74 4.74 4.74 4.74 4.74 4.74 4.74 4.74 
4.74 4.74 4.74 4.74 4.74 4.74 4.74 4.74 4.74 
4.74 4.74 4.74 4.74 4.74 4.74 4.74 4.74 4.74 
4.74 4.74 4.74 4.74 4.74 4.74 4.74 4.74 4.74 
4.74 4.74 4.74 4.74 4.74 4.74 4.74 4.74 4.74 
4.74 4.74 4.74 4.74 4.74 4.74 4.74 4.74 4.74 
4.74 4.74 4.74 4.74 4.74 4.74 4.74 4.74 4.74 
4.74 4.74 4.74 4.74 4.74 4.74 4.74 4.74 4.74 
4.74 4.74 4.74 4.74 4.74 4.74 4.74 4.74 4.74 
4.74 4.74 4.74 4.74 4.74 4.74 4.74 4.74 4.74 
4.74 4.74 4.74 4.74 4.74 4.74 4.74 4.74 4.74 
4.74 4.74 4.74 4.74 4.74 4.74 4.74 4.74 4.74 
4.74 4.74 4.74 4.74 4.74 4.74 4.74 4.74 4.74 
4.74 4.74 4.74 4.74 4.74 4.74 4.74 4.74 4.74 
4.74 4.74 4.74 4.74 4.74 4.74 4.74 4.74 4.74 
4.74 4.74 4.74 4.74 4.74 4.74 4.74 4.74 4.74 
4.74 4.74 4.74 4.74 4.74 4.74 4.74 4.74 4.74 
4.74 4.74 4.74 4.74 4.74 4.74 4.74 4.74 4.74 
4.74 4.74 4.74 4.74 4.74 4.74 4.74 4.74 4.74 
4.74 4.74 4.74 4.74 4.74 4.74 4.74 4.74 4.74 
4.74 4.74 4.74 4.74 4.74 4.74 4.74 4.74 4.74 
4.74 4.74 4.74 4.74 4.74 4.74 4.74 4.74 4.74 
4.74 4.74 4.74 4.74 4.74 4.74 4.74 4.74 4.74 
4.74 4.74 4.74 4.74 4.74 4.74 4.74 4.74 4.74 
4.74 4.74 4.74 4.74 4.74 4.74 4.74 4.74 4.74 
4.74 4.74 4.74 4.74 4.74 4.74 4.74 4.74 4.74 
4.74 4.74 4.74 4.74 4.74 4.74 4.74 4.74 4.74 
4.74 4.74 4.74 4.74 4.74 4.74 4.74 4.74 4.74 
4.74 4.74 4.74 4.74 4.74 4.74 4.74 4.74 4.74 
4.74 4.74 4.74 4.74 4.74 4.74 4.74 4.74 4.74 
4.74 4.74 4.74 4.74 4.74 4.74 4.74 4.74 4.74 
4.74 4.74 4.74 4.74 4.74 4.74 4.74 4.74 4.74 
4.74 4.74 4.74 4.74 4.74 4.74 4.74 4.74 4.74 
4.74 4.74 4.74 4.74 4.74 4.74 4.74 4.74 4.74 
4.74 4.74 4.74 4.74 4.74 4.74 4.74 4.74 4.74 
4.74 4.74 4.74 4.74 4.74 4.74 4.74 4.74 4.74 
4.74 4.74 4.74 4.74 4.74 4.74 4.74 4.74 4.74 
4.74 4.74 4.74 4.74 4.74 4.74 4.74 4.74 4.74 
4.74 4.74 4.74 4.74 4.74 4.74 4.74 4.74 4.74 
4.74 4.74 4.74 4.74 4.74 4.74 4.74 4.74 4.74 
4.74 4.74 4.74 4.74 4.74 4.74 4.74 4.74 4.74 
4.74 4.74 4.74 4.74 4.74 4.74 4.74 4.74 4.74 
4.74 4.74 4.74 4.74 4.74 4.74 4.74 4.74 4.74 
4.74 4.74 4.74 4.74 4.74 4.74 4.74 4.74 4.74 
4.74 4.74 4.74 4.74 4.74 4.74 4.74 4.74 4.74 
4.74 4.74 4.74 4.74 4.74 4.74 4.74 4.74 4.74 
4.74 4.74 4.74 4.74 4.74 4.74 4.74 4.74 4.74 
4.74 4.74 4.74 4.74 4.74 4.74 4.74 4.74 4.74 
4.74 4.74 4.74 4.74 4.74 4.74 4.74 4.74 4.74 
4.74 4.74 4.74 4.74 4.74 4.74 4.74 4.74 4.74 
4.74 4.74 4.74 4.74 4.74 4.74 4.74 4.74 4.74 
4.74 4.74 4.74 4.74 4.74 4.74 4.74 4.74 4.74 
4.74 4.74 4.74 4.74 4.74 4.74 4.74 4.74 4.74 
4.74 4.74 4.74 4.74 4.74 4.74 4.74 4.74 4.74 
4.74 4.74 4.74 4.74 4.74 4.74 4.74 4.74 4.74 
4.74 4.74 4.74 4.74 4.74 4.74 4.74 4.74 4.74 
4.74 4.74 4.74 4.74 4.74 4.74 4.74 4.74 4.74 
4.74 4.74 4.74 4.74 4.74 4.74 4.74 4.74 4.74 
4.74 4.74 4.74 4.74 4.74 4.74 4.74 4.74 4.74 
4.74 4.74 4.74 4.74 4.74 4.74 4.74 4.74 4.74 
4.74 4.74 4.74 4.74 4.74 4.74 4.74 4.74 4.74 
4.74 4.74 4.74 4.74 4.74 4.74 4.74 4.74 4.74 
4.74 4.74 4.74 4.74 4.74 4.74 4.74 4.74 4.74 
4.74 4.74 4.74 4.74 4.74 4.74 4.74 4.74 4.74 
4.74 4.74 4.74 4.74 4.74 4.74 4.74 4.74 4.74 
4.74 4.74 4.74 4.74 4.74 4.74 4.74 4.74 4.74 
4.74 4.74 4.74 4.74 4.74 4.74 4.74 4.74 4.74 
4.74 4.74 4.74 4.74 4.74 4.74 4.74 4.74 4.74 
4.74 4.74 4.74 4.74 4.74 4.74 4.74 4.74 4.74 
4.74 4.74 4.74 4.74 4.74 4.74 4.74 4.74 4.74 
4.74 4.74 4.74 4.74 4.74 4.74 4.74 4.74 4.74 
4.74 4.74 4.74 4.74 4.74 4.74 4.74 4.74 4.74 
4.74 4.74 4.74 4.74 4.74 4.74 4.74 4.74 4.74 
4.74 4.74 4.74 4.74 4.74 4.74 4.74 4.74 4.74 
4.74 4.74 4.74 4.74 4.74 4.74 4.74 4.74 4.74 
4.74 4.74 4.74 4.74 4.74 4.74 4.74 4.74 4.74 
4.74 4.74 4.74 4.74 4.74 4.74 4.74 4.74 4.74 
4.74 4.74 4.74 4.74 4.74 4.74 4.74 4.74 4.74 
4.74 4.74 4.74 4.74 4.74 4.74 4.74 4.74 4.74 
4.74 4.74 4.74 4.74 4.74 4.74 4.74 4.74 4.74 
4.74 4.74 4.74 4.74 4.74 4.74 4.74 4.74 4.74 
4.74 4.74 4.74 4.74 4.74 4.74 4.74 4.74 4.74 
4.74 4.74 4.74 4.74 4.74 4.74 4.74 4.74 4.74 
4.74 4.74 4.74 4.74 4.74 4.74 4.74 4.74 4.74 
4.74 4.74 4.74 4.74 4.74 4.74 4.74 4.74 4.74 
4.74 4.74 4.74 4.74 4.74 4.74 4.74 4.74 4.74 
4.74 4.74 4.74 4.74 4.74 4.74 4.74 4.74 4.74 
4.74 4.74 4.74 4.74 4.74 4.74 4.74 4.74 4.74 
4.74 4.74 4.74 4.74 4.74 4.74 4.74 4.74 4.74 
4.74 4.74 4.74 4.74 4.74 4.74 4.74 4.74 4.74 
4.74 4.74 4.74 4.74 4.74 4.74 4.74 4.74 4.74 
4.74 4.74 4.74 4.74 4.74 4.74 4.74 4.74 4.74 
4.74 4.74 4.74 4.74 4.74 4.74 4.74 4.74 4.74 
4.74 4.74 4.74 4.74 4.74 4.74 4.74 4.74 4.74 
4.74 4.74 4.74 4.74 4.74 4.74 4.74 4.74 4.74 
4.74 4.74 4.74 4.74 4.74 4.74 4.74 4.74 4.74 
4.74 4.74 4.74 4.74 4.74 4.74 4.74 4.74 4.74 
4.74 4.74 4.74 4.74 4.74 4.74 4.74 4.74 4.74 
4.74 4.74 4.74 4.74 4.74 4.74 4.74 4.74 4.74 
4.74 4.74 4.74 4.74 4.74 4.74 4.74 4.74 4.74 
4.74 4.74 4.74 4.74 4.74 4.74 4.74 4.74 4.74 
4.74 4.74 4.74 4.74 4.74 4.74 4.74 4.74 4.74 
4.74 4.74 4.74 4.74 4.74 4.74 4.74 4.74 4.74 
4.74 4.74 4.74 4.74 4.74 4.74 4.74 4.74 4.74 
4.74 4.74 4.74 4.74 4.74 4.74 4.74 4.74 4.74 
4.74 4.74 4.74 4.74 4.74 4.74 4.74 4.74 4.74 
4.74 4.74 4.74 4.74 4.74 4.74 4.74 4.74 4.74 
4.74 4.74 4.74 4.74 4.74 4.74 4.74 4.74 4.74 
4.74 4.74 4.74 4.74 4.74 4.74 4.74 4.74 4.74 
4.74 4.74 4.74 4.74 4.74 4.74 4.74 4.74 4.74 
4.74 4.74 4.74 4.74 4.74 4.74 4.74 4.74 4.74 
4.74 4.74 4.74 4.74 4.74 4.74 4.74 4.74 4.74 
4.74 4.74 4.74 4.74 4.74 4.74 4.74 4.74 4.74 
4.74 4.74 4.74 4.74 4.74 4.74 4.74 4.74 4.74 
4.74 4.74 4.74 4.74 4.74 4.74 4.74 4.74 4.74 
4.74 4.74 4.74 4.74 4.74 4.74 4.74 4.74 4.74 
4.74 4.74 4.74 4.74 4.74 4.74 4.74 4.74 4.74 
4.74 4.74 4.74 4.74 4.74 4.74 4.74 4.74 4.74 
4.74 4.74 4.74 4.74 4.74 4.74 4.74 4.74 4.74 
4.74 4.74 4.74 4.74 4.74 4.74 4.74 4.74 4.74 
4.74 4.74 4.74 4.74 4.74 4.74 4.74 4.74 4.74 
4.74 4.74 4.74 4.74 4.74 4.74 4.74 4.74 4.74 
4.74 4.74 4.74 4.74 4.74 4.74 4.74 4.74 4.74 
4.74 4.74 4.74 4.74 4.74 4.74 4.74 4.74 4.74 
4.74 4.74 4.74 4.74 4.74 4.74 4.74 4.74 4.74 
4.74 4.74 4.74 4.74 4.74 4.74 4.74 4.74 4.74 
4.74 4.74 4.74 4.74 4.74 4.74 4.74 4.74 4.74 
4.74 4.74 4.74 4.74 4.74 4.74 4.74 4.74 4.74 
4.74 4.74 4.74 4.74 4.74 4.74 4.74 4.74 4.74 
4.74 4.74 4.74 4.74 4.74 4.74 4.74 4.74 4.74 
4.74 4.74 4.74 4.74 4.74 4.74 4.74 4.74 4.74 
4.74 4.74 4.74 4.74 4.74 4.74 4.74 4.74 4.74 
4.74 4.74 4.74 4.74 4.74 4.74 4.74 4.74 4.74 
4.74 4.74 4.74 4.74 4.74 4.74 4.74 4.74 4.74 
4.74 4.74 4.74 4.74 4.74 4.74 4.74 4.74 4.74 
4.74 4.74 4.74 4.74 4.74 4.74 4.74 4.74 4.74 
4.74 4.74 4.74 4.74 4.74 4.74 4.74 4.74 4.74 
4.74 4.74 4.74 4.74 4.74 4.74 4.74 4.74 4.74 
4.74 4.74 4.74 4.74 4.74 4.74 4.74 4.74 4.74 
4.74 4.74 4.74 4.74 4.74 4.74 4.74 4.74 4.74 
4.74 4.74 4.74 4.74 4.74 4.74 4.74 4.74 4.74 
4.74 4.74 4.74 4.74 4.74 4.74 4.74 4.74 4.74 
4.74 4.74 4.74 4.74 4.74 4.74 4.74 4.74 4.74 
4.74 4.74 4.74 4.74 4.74 4.74 4.74 4.74 4.74 
4.74 4.74 4.74 4.74 4.74 4.74 4.74 4.74 4.74 
4.74 4.74 4.74 4.74 4.74 4.74 4.74 4.74 4.74 
4.74 4.74 4.74 4.74 4.74 4.74 4.74 4.74 4.74 
4.74 4.74 4.74 4.74 4.74 4.74 4.74 4.74 4.74 
4.74 4.74 4.74 4.74 4.74 4.74 4.74 4.74 4.74 
4.74 4.74 4.74 4.74 4.74 4.74 4.74 4.74 4.74 
4.74 4.74 4.74 4.74 4.74 4.74 4.74 4.74 4.74 
4.74 4.74 4.74 4.74 4.74 4.74 4.74 4.74 4.74 
4.74 4.74 4.74 4.74 4.74 4.74 4.74 4.74 4.74 
4.74 4.74 4.74 4.74 4.74 4.74 4.74 4.74 4.74 
4.74 4.74 4.74 4.74 4.74 4.74 4.74 4.74 4.74 
4.74 4.74 4.74 4.74 4.74 4.74 4.74 4.74 4.74 
4.74 4.74 4.74 4.74 4.74 4.74 4.74 4.74 4.74 
4.74 4.74 4.74 4.74 4.74 4.74 4.74 4.74 4.74 
4.74 4.74 4.74 4.74 4.74 4.74 4.74 4.74 4.74 
4.74 4.74 4.74 4.74 4.74 4.74 4.74 4.74 4.74 
4.74 4.74 4.74 4.74 4.74 4.74 4.74 4.74 4.74 
4.74 4.74 4.74 4.74 4.74 4.74 4.74 4.74 4.74 
4.74 4.74 4.74 4.74 4.74 4.74 4.74 4.74 4.74 
4.74 4.74 4.74 4.74 4.74 4.74 4.74 4.74 4.74 
4.74 4.74 4.74 4.74 4.74 4.74 4.74 4.74 4.74 
4.74 4.74 4.74 4.74 4.74 4.74 4.74 4.74 4.74 
4.74 4.74 4.74 4.74 4.74 4.74 4.74 4.74 4.74 
4.74 4.74 4.74 4.74 4.74 4.74 4.74 4.74 4.74 
4.74 4.74 4.74 4.74 4.74 4.74 4.74 4.74 4.74 
4.74 4.74 4.74 4.74 4.74 4.74 4.74 4.74 4.74 
4.74 4.74 4.74 4.74 4.74 4.74 4.74 4.74 4.74 
4.74 4.74 4.74 4.74 4.74 4.74 4.74 4.74 4.74 
4.74 4.74 4.74 4.74 4.74 4.74 4.74 4.74 4.74 
4.74 4.74 4.74 4.74 4.74 4.74 4.74 4.74 4.74 
4.74 4.74 4.74 4.74 4.74 4.74 4.74 4.74 4.74 
4.74 4.74 4.74 4.74 4.74 4.74 4.74 4.74 4.74 
4.74 4.74 4.74 4.74 4.74 4.74 4.74 4.74 4.74 
4.74 4.74 4.74 4.74 4.74 4.74 4.74 4.74 4.74 
4.74 4.74 4.74 4.74 4.74 4.74 4.74 4.74 4.74 
4.74 4.74 4.74 4.74 4.74 4.74 4.74 4.74 4.74 
4.74 4.74 4.74 4.74 4.74 4.74 4.74 4.74 4.74 
4.74 4.74 4.74 4.74 4.74 4.74 4.74 4.74 4.74 
4.74 4.74 4.74 4.74 4.74 4.74 4.74 4.74 4.74 
4.74 4.74 4.74 4.74 4.74 4.74 4.74 4.74 4.74 
4.74 4.74 4.74 4.74 4.74 4.74 4.74 4.74 4.74 
4.74 4.74 4.74 4.74 4.74 4.74 4.74 4.74 4.74 
4.74 4.74 4.74 4.74 4.74 4.74 4.74 4.74 4.74 
4.74 4.74 4.74 4.74 4.74 4.74 4.74 4.74 4.74 
4.74 4.74 4.74 4.74 4.74 4.74 4.74 4.74 4.74 
4.74 4.74 4.74 4.74 4.74 4.74 4.74 4.74 4.74 
4.74 4.74 4.74 4.74 4.74 4.74 4.74 4.74 4.74 
4.74 4.74 4.74 4.74 4.74 4.74 4.74 4.74 4.74 
4.74 4.74 4.74 4.74 4.74 4.74 4.74 4.74 4.74 
4.74 4.74 4.74 4.74 4.74 4.74 4.74 4.74 4.74 
4.74 4.74 4.74 4.74 4.74 4.74 4.74 4.74 4.74 
4.74 4.74 4.74 4.74 4.74 4.74 4.74 4.74 4.74 
4.74 4.74 4.74 4.74 4.74 4.74 4.74 4.74 4.74 
4.74 4.74 4.74 4.74 4.74 4.74 4.74 4.74 4.74 
4.74 4.74 4.74 4.74 4.74 4.74 4.74 4.74 4.74 
4.74 4.74 4.74 4.74 4.74 4.74 4.74 4.74 4.74 
4.74 4.74 4.74 4.74 4.74 4.74 4.74 4.74 4.74 
4.74 4.74 4.74 4.74 4.74 4.74 4.74 4.74 4.74 
4.74 4.74 4.74 4.74 4.74 4.74 4.74 4.74 4.74 
4.74 4.74 4.74 4.74 4.74 4.74 4.74 4.74 4.74 
4.74 4.74 4.74 4.74 4.74 4.74 4.74 4.74 4.74 
4.74 4.74 4.74 4.74 4.74 4.74 4.74 4.74 4.74 
4.74 4.74 4.74 4.74 4.74 4.74 4.74 4.74 4.74 
4.74 4.74 4.74 4.74 4.74 4.74 4.74 4.74 4.74 
4.74 4.74 4.74 4.74 4.74 4.74 4.74 4.74 4.74 
4.74 4.74 4.74 4.74 4.74 4.74 4.74 4.74 4.74 
4.74 4.74 4.74 4.74 4.74 4.74 4.74 4.74 4.74 
4.74 4.74 4.74 4.74 4.74 4.74 4.74 4.74 4.74 
4.74 4.74 4.74 4.74 4.74 4.74 4.74 4.74 4.74 
4.74 4.74 4.74 4.74 4.74 4.74 4.74 4.74 4.74 
4.74 4.74 4.74 4.74 4.74 4.74 4.74 4.74 4.74 
4.74 4.74 4.74 4.74 4.74 4.74 4.74 4.74 4.74 
4.74 4.74 4.74 4.74 4.74 4.74 4.74 4.74 4.74 
4.74 4.74 4.74 4.74 4.74 4.74 4.74 4.74 4.74 
4.74 4.74 4.74 4.74 4.74 4.74 4.74 4.74 4.74 
4.74 4.74 4.74 4.74 4.74 4.74 4.74 4.74 4.74 
4.74 4.74 4.74 4.74 4.74 4.74 4.74 4.74 4.74 
4.74 4.74 4.74 4.74 4.74 4.74 4.74 4.74 4.74 
4.74 4.74 4.74 4.74 4.74 4.74 4.74 4.74 4.74 
4.74 4.74 4.74 4.74 4.74 4.74 4.74 4.74 4.74 
4.74 4.74 4.74 4.74 4.74 4.74 4.74 4.74 4.74 
4.74 4.74 4.74 4.74 4.74 4.74 4.74 4.74 4.74 
4.74 4.74 4.74 4.74 4.74 4.74 4.74 4.74 4.74 
4.74 4.74 4.74 4.74 4.74 4.74 4.74 4.74 4.74 
4.74 4.74 4.74 4.74 4.74 4.74 4.74 4.74 4.74 
4.74 4.74 4.74 4.74 4.74 4.74 4.74 4.74 4.74 
4.74 4.74 4.74 4.74 4.74 4.74 4.74 4.74 4.74 
4.74 4.74 4.74 4.74 4.74 4.74 4.74 4.74 4.74 
4.74 4.74 4.74 4.74 4.74 4.74 4.74 4.74 4.74 
4.74 4.74 4.74 4.74 4.74 4.74 4.74 4.74 4.74 
4.74 4.74 4.74 4.74 4.74 4.74 4.74 4.74 4.74 
4.74 4.74 4.74 4.74 4.74 4.74 4.74 4.74 4.74 
4.74 4.74 4.74 4.74 4.74 4.74 4.74 4.74 4.74 
4.74 4.74 4.74 4.74 4.74 4.74 4.74 4.74 4.74 
4.74 4.74 4.74 4.74 4.74 4.74 4.74 4.74 4.74 
4.74 4.74 4.74 4.74 4.74 4.74 4.74 4.74 4.74 
4.74 4.74 4.74 4.74 4.74 4.74 4.74 4.74 4.74 
4.74 4.74 4.74 4.74 4.74 4.74 4.74 4.74 4.74 
4.74 4.74 4.74 4.74 4.74 4.74 4.74 4.74 4.74 
4.74 4.74 4.74 4.74 4.74 4.74 4.74 4.74 4.74 
4.74 4.74 4.74 4.74 4.74 4.74 4.74 4.74 4.74 
4.74 4.74 4.74 4.74 4.74 4.74 4.74 4.74 4.74 
4.74 4.74 4.74 4.74 4.74 4.74 4.74 4.74 4.74 
4.74 4.74 4.74 4.74 4.74 4.74 4.74 4.74 4.74 
4.74 4.74 4.74 4.74 4.74 4.74 4.74 4.74 4.74 
4.74 4.74 4.74 4.74 4.74 4.74 4.74 4.74 4.74 
4.74 4.74 4.74 4.74 4.74 4.74 4.74 4.74 4.74 
4.74 4.74 4.74 4.74 4.74 4.74 4.74 4.74 4.74 
4.74 4.74 4.74 4.74 4.74 4.74 4.74 4.74 4.74 
4.74 4.74 4.74 4.74 4.74 4.74 4.74 4.74 4.74 
4.74 4.74 4.74 4.74 4.74 4.74 4.74 4.74 4.74 
4.74 4.74 4.74 4.74 4.74 4.74 4.74 4.74 4.74 
4.74 4.74 4.74 4.74 4.74 4.74 4.74 4.74 4.74 
4.74 4.74 4.74 4.74 4.74 4.74 4.74 4.74 4.74 
4.74 4.74 4.74 4.74 4.74 4.74 4.74 4.74 4.74 
4.74 4.74 4.74 4.74 4.74 4.74 4.74 4.74 4.74 
4.74 4.74 4.74 4.74 4.74 4.74 4.74 4.74 4.74 
4.74 4.74 4.74 4.74 4.74 4.74 4.74 4.74 4.74 
4.74 4.74 4.74 4.74 4.74 4.74 4.74 4.74 4.74 
4.74 4.74 4.74 4.74 4.74 4.74 4.74 4.74 4.74 
4.74 4.74 4.74 4.74 4.74 4.74 4.74 4.74 4.74 
4.74 4.74 4.74 4.74 4.74 4.74 4.74 4.74 4.74 
4.74 4.74 4.74 4.74 4.74 4.74 4.74 4.74 4.74 
4.74 4.74 4.74 4.74 4.74 4.74 4.74 4.74 4.74 
4.74 4.74 4.74 4.74 4.74 4.74 4.74 4.74 4.74 
4.74 4.74 4.74 4.74 4.74 4.74 4.74 4.74 4.74 
4.74 4.74 4.74 4.74 4.74 4.74 4.74 4.74 4.74 
4.74 4.74 4.74 4.74 4.74 4.74 4.74 4.74 4.74 
4.74 4.74 4.74 4.74 4.74 4.74 4.74 4.74 4.74 
4.74 4.74 4.74 4.74 4.74 4.74 4.74 4.74 4.74 
4.74 4.74 4.74 4.74 4.74 4.74 4.74 4.74 4.74 
4.74 4.74 4.74 4.74 4.74 4.74 4.74 4.74 4.74 
4.74 4.74 4.74 4.74 4.74 4.74 4.74 4.74 4.74 
4.74 4.74 4.74 4.74 4.74 4.74 4.74 4.74 4.74 
4.74 4.74 4.74 4.74 4.74 4.74 4.74 4.74 4.74 
4.74 4.74 4.74 4.74 4.74 4.74 4.74 4.74 4.74 
4.74 4.74 4.74 4.74 4.74 4.74 4.74 4.74 4.74 
4.74 4.74 4.74 4.74 4.74 4.74 4.74 4.74 4.74 
4.74 4.74 4.74 4.74 4.74 4.74 4.74 4.74 4.74 
4.74 4.74 4.74 4.74 4.74 4.74 4.74 4.74 4.74 
4.74 4.74 4.74 4.74 4.74 4.74 4.74 4.74 4.74 
4.74 4.74 4.74 4.74 4.74 4.74 4.74 4.74 4.74 
4.74 4.74 4.74 4.74 4.74 4.74 4.74 4.74 4.74 
4.74 4.74 4.74 4.74 4.74 4.74 4.74 4.74 4.74 
4.74 4.74 4.74 4.74 4.74 4.74 4.74 4.74 4.74 
4.74 4.74 4.74 4.74 4.74 4.74 4.74 4.74 4.74 
4.74 4.74 4.74 4.74 4.74 4.74 4.74 4.74 4.74 
4.74 4.74 4.74 4.74 4.74 4.74 4.74 4.74 4.74 
4.74 4.74 4.74 4.74 4.74 4.74 4.74 4.74 4.74 
4.74 4.74 4.74 4.74 4.74 4.74 4.74 4.74 4.74 
4.74 4.74 4.74 4.74 4.74 4.74 4.74 4.74 4.74 
4.74 4.74 4.74 4.74 4.74 4.74 4.74 4.74 4.74 
4.74 4.74 4.74 4.74 4.74 4.74 4.74 4.74 4.74 
4.74 4.74 4.74 4.74 4.74 4.74 4.74 4.74 4.74 
4.74 4.74 4.74 4.74 4.74 4.74 4.74 4.74 4.74 
4.74 4.74 4.74 4.74 4.74 4.74 4.74 4.74 4.74 
4.74 4.74 4.74 4.74 4.74 4.74 4.74 4.74 4.74 
4.74 4.74 4.74 4.74 4.74 4.74 4.74 4.74 4.74 
4.74 4.74 4.74 4.74 4.74 4.74 4.74 4.74 4.74 
4.74 4.74 4.74 4.74 4.74 4.74 4.74 4.74 4.74 
4.74 4.74 4.74 4.74 4.74 4.74 4.74 4.74 4.74 
4.74 4.74 4.74 4.74 4.74 4.74 4.74 4.74 4.74 
4.74 4.74 4.74 4.74 4.74 4.74 4.74 4.74 4.74 
4.74 4.74 4.74 4.74 4.74 4.74 4.74 4.74 4.74 
4.74 4.74 4.74 4.74 4.74 4.74 4.74 4.74 4.74 
4.74 4.74 4.74 4.74 4.74 4.74 4.74 4.74 4.74 
4.74 4.74 4.74 4.74 4.74 4.74 4.74 4.74 4.74 
4.74 4.74 4.74 4.74 4.74 4.74 4.74 4.74 4.74 
4.74 4.74 4.74 4.74 4.74 4.74 4.74 4.74 4.74 
4.74 4.74 4.74 4.74 4.74 4.74 4.74 4.74 4.74 
4.74 4.74 4.74 4.74 4.74 4.74 4.74 4.74 4.74 
4.74 4.74 4.74 4.74 4.74 4.74 4.74 4.74 4.74 
4.74 4.74 4.74 4.74 4.74 4.74 4.74 4.74 4.74 
4.74 4.74 4.74 4.74 4.74 4.74 4.74 4.74 4.74 
4.74 4.74 4.74 4.74 4.74 4.74 4.74 4.74 4.74 
4.74 4.74 4.74 4.74 4.74 4.74 4.74 4.74 4.74 
4.74 4.74 4.74 4.74 4.74 4.74 4.74 4.74 4.74 
4.74 4.74 4.74 4.74 4.74 4.74 4.74 4.74 4.74 
4.74 4.74 4.74 4.74 4.74 4.74 4.74 4.74 4.74 
4.74 4.74 4.74 4.74 4.74 4.74 4.74 4.74 4.74 
4.74 4.74 4.74 4.74 4.74 4.74 4.74 4.74 4.74 
4.74 4.74 4.74 4.74 4.74 4.74 4.74 4.74 4.74 
4.74 4.74 4.74 4.74 4.74 4.74 4.74 4.74 4.74 
4.74 4.74 4.74 4.74 4.74 4.74 4.74 4.74 4.74 
4.74 4.74 4.74 4.74 4.74 4.74 4.74 4.74 4.74 
4.74 4.74 4.74 4.74 4.74 4.74 4.74 4.74 4.74 
4.74 4.74 4.74 4.74 4.74 4.74 4.74 4.74 4.74 
4.74 4.74 4.74 4.74 4.74 4.74 4.74 4.74 4.74 
4.74 4.74 4.74 4.74 4.74 4.74 4.74 4.74 4.74 
4.74 4.74 4.74 4.74 4.74 4.74 4.74 4.74 4.74 
4.74 4.74 4.74 4.74 4.74 4.74 4.74 4.74 4.74 
4.74 4.74 4.74 4.74 4.74 4.74 4.74 4.74 4.74 
4.74 4.74 4.74 4.74 4.74 4.74 4.74 4.74 4.74 
4.74 4.74 4.74 4.74 4.74 4.74 4.74 4.74 4.74 
4.74 4.74 4.74 4.74 4.74 4.74 4.74 4.74 4.74 
4.74 4.74 4.74 4.74 4.74 4.74 4.74 4.74 4.74 
4.74 4.74 4.74 4.74 4.74 4.74 4.74 4.74 4.74 
4.74 4.74 4.74 4.74 4.74 4.74 4.74 4.74 4.74 
4.74 4.74 4.74 4.74 4.74 4.74 4.74 4.74 4.74 
4.74 4.74 4.74 4.74 4.74 4.74 4.74 4.74 4.74 
4.74 4.74 4.74 4.74 4.74 4.74 4.74 4.74 4.74 
4.74 4.74 4.74 4.74 4.74 4.74 4.74 4.74 4.74 
4.74 4.74 4.74 4.74 4.74 4.74 4.74 4.74 4.74 
4.74 4.74 4.74 4.74 4.74 4.74 4.74 4.74 4.74 
4.74 4.74 4.74 4.74 4.74 4.74 4.74 4.74 4.74 
4.74 4.74 4.74 4.74 4.74 4.74 4.74 4.74 4.74 
4.74 4.74 4.74 4.74 4.74 4.74 4.74 4.74 4.74 
4.74 4.74 4.74 4.74 4.74 4.74 4.74 4.74 4.74 
4.74 4.74 4.74 4.74 4.74 4.74 4.74 4.74 4.74 
4.74 4.74 4.74 4.74 4.74 4.74 4.74 4.74 4.74 
4.74 4.74 4.74 4.74 4.74 4.74 4.74 4.74 4.74 
4.74 4.74 4.74 4.74 4.74 4.74 4.74 4.74 4.74 
4.74 4.74 4.74 4.74 4.74 4.74 4.74 4.74 4.74 
4.74 4.74 4.74 4.74 4.74 4.74 4.74 4.74 4.74 
4.74 4.74 4.74 4.74 4.74 4.74 4.74 4.74 4.74 
4.74 4.74 4.74 4.74 4.74 4.74 4.74 4.74 4.74 
4.74 4.74 4.74 4.74 4.74 4.74 4.74 4.74 4.74 
4.74 4.74 4.74 4.74 4.74 4.74 4.74 4.74 4.74 
4.74 4.74 4.74 4.74 4.74 4.74 4.74 4.74 4.74 
4.74 4.74 4.74 4.74 4.74 4.74 4.74 4.74 4.74 
4.74 4.74 4.74 4.74 4.74 4.74 4.74 4.74 4.74 
4.74 4.74 4.74 4.74 4.74 4.74 4.74 4.74 4.74 
4.74 4.74 4.74 4.74 4.74 4.74 4.74 4.74 4.74 
4.74 4.74 4.74 4.74 4.74 4.74 4.74 4.74 4.74 
4.74 4.74 4.74 4.74 4.74 4.74 4.74 4.74 4.74 
4.74 4.74 4.74 4.74 4.74 4.74 4.74 4.74 4.74 
4.74 4.74 4.74 4.74 4.74 4.74 4.74 4.74 4.74 
4.74 4.74 4.74 4.74 4.74 4.74 4.74 4.74 4.74 
4.74 4.74 4.74 4.74 4.74 4.74 4.74 4.74 4.74 
4.74 4.74 4.74 4.74 4.74 4.74 4.74 4.74 4.74 
4.74 4.74 4.74 4.74 4.74 4.74 4.74 4.74 4.74 
4.74 4.74 4.74 4.74 4.74 4.74 4.74 4.74 4.74 
4.74 4.74 4.74 4.74 4.74 4.74 4.74 4.74 4.74 
4.74 4.74 4.74 4.74 4.74 4.74 4.74 4.74 4.74 
4.74 4.74 4.74 4.74 4.74 4.74 4.74 4.74 4.74 
4.74 4.74 4.74 4.74 4.74 4.74 4.74 4.74 4.74 
4.74 4.74 4.74 4.74 4.74 4.74 4.74 4.74 4.74 